64
Config_type=deformed_0000 Weight=1.0 Lattice="8.100400000 0.000000000 0.000000000 0.000000000 8.100400000 0.000000000 0.000000000 0.000000000 8.495770000" Energy=-412.211544 Virial="82.57683 1.62110 -3.95560 1.62110 92.06542 -5.13961 -3.95560 -5.13961 76.72490" Properties=species:S:1:pos:R:3:forces:R:3
Si	      4.12205      7.68963      8.26876        -1.942868      0.170919      1.496479
Si	      5.35428      1.89355      8.45023         0.390184     -1.202066     -0.811794
Si	      5.64290      8.06298      2.33889        -0.707537      1.080876      1.076555
Si	      7.91409      0.15788      0.08054         0.201404      0.626320     -0.497819
Si	      1.80793      2.23539      0.27246         0.763927      0.028113     -1.398822
Si	      3.86243      4.62201      0.18453         0.291326     -1.230925     -0.662964
Si	      5.96530      6.11596      0.03500         0.667580     -0.113251     -0.283854
Si	      2.24316      0.17084      2.30728         1.298760     -0.339359     -1.522793
Si	      3.65741      2.23936      2.10126         0.391417      0.034694      0.387000
Si	      6.32301      3.79042      2.05334        -1.655991      0.149610      0.443821
Si	      3.91565      0.39789      4.32885        -0.934956     -2.111764      1.249470
Si	      5.67295      2.19983      4.56529         3.325353     -0.683229      0.190468
Si	      5.79964      7.87634      6.42697        -1.034543      0.650570     -1.546042
Si	      0.08376      4.22331      8.28176         0.141074      0.297914      1.253138
Si	      1.43604      6.37631      0.24995         3.172527     -0.121643     -0.649693
Si	      7.90850      1.90854      1.79269         0.466776     -0.107553      0.915706
Si	      1.53041      4.31298      2.35273        -0.324363      0.430227      1.340700
Si	      3.89006      5.65781      2.15130         1.121142      0.910481      3.752667
Si	      7.94674      0.27882      4.28051        -0.499654      1.887749      0.067674
Si	      1.48618      2.23976      4.54116        -1.444910      0.650338      0.452086
Si	      3.90893      3.96369      4.41049        -0.222710      0.669425     -1.336595
Si	      5.95136      6.18101      4.43496        -0.658494     -0.993683     -2.247845
Si	      2.11874      0.30514      6.70282        -1.051545      0.172244      0.602630
Si	      3.69475      2.32036      6.57454        -0.144167      0.619001      0.440381
Si	      6.33735      4.32067      6.79662        -2.677682      0.169043     -1.463454
Si	      7.56229      6.56853      1.89150         0.114993      0.211359      1.762926
Si	      7.87804      4.03035      3.98384        -1.408628      0.207322      3.309385
Si	      1.50805      6.49344      4.16386         1.473837     -1.206727     -0.372181
Si	      7.71628      2.19667      6.66136         0.342437     -1.441835      0.886608
Si	      1.63871      4.46202      6.49867        -2.523687      1.359227     -1.957750
Si	      3.30286      5.84946      6.01016         2.399427      1.548461     -1.142436
Si	      7.82288      6.81130      6.08603         2.387890     -1.220083      1.217903
C	      5.77461      1.90821      2.59903         0.352737      0.045795     -0.239348
C	      7.82086      4.78669      1.50452         2.037816     -1.814717     -0.173270
C	      7.71450      2.17771      4.87912         1.035758      0.155978     -4.080995
C	      1.66998      2.41546      2.64380        -0.739329      0.294821     -2.085145
C	      4.47547      3.81051      2.55621        -3.252110      1.451871      1.928950
C	      5.80969      5.57372      2.58807        -0.143810      2.332531     -0.833428
C	      0.43361      0.18428      2.47397        -3.146915      0.432715     -1.054648
C	      3.22663      2.17496      4.73002         7.112796      0.457826      0.103731
C	      6.02888      4.07653      4.88779        -2.473369     -0.153573     -1.134308
C	      7.74803      5.88583      3.56457         0.413133      1.082119      3.025822
C	      5.83561      1.59035      6.47004        -2.655679      2.168783      1.374052
C	      7.89586      4.88527      5.81306         0.380825     -0.560386      0.926034
C	      7.13710      2.36661      0.04435         4.256381      0.088558      1.709845
C	      2.10286      6.29863      2.11290        -1.846937     -1.093999      1.617237
C	      3.95000      7.42547      1.69796         2.261952      2.085211      0.499608
C	      1.82494      4.33517      4.50174         0.946358      1.348795     -1.450738
C	      3.81472      6.53184      4.11960        -1.374441     -1.860455     -0.039300
C	      5.99316      0.15383      4.35960        -0.350594     -2.353131     -1.311695
C	      1.67881      2.72740      6.61786        -0.354632     -3.250668      2.284248
C	      4.30763      4.16377      6.88285        -0.647024     -1.594307     -3.142842
C	      5.17308      5.99089      6.09113         1.939515      0.120418      2.174304
C	      0.17691      0.42235      6.84334         0.101247      1.378351     -0.718256
C	      3.65684      2.85847      0.17119        -1.205330     -6.050020      0.861260
C	      5.54521      3.75000      0.37381         2.698757      1.629187     -1.454965
C	      7.80943      6.33386      7.89699        -0.597971     -1.306804      2.521108
C	      2.02826      0.42171      4.85890        -2.331856     -1.276461     -2.889794
C	      1.69436      6.58992      6.64599        -0.844969     -2.705435     -0.503914
C	      3.90796      7.68388      6.16292         1.909521      2.978355      0.812476
C	      2.07200      4.37867      0.66904        -2.409427     -0.797483     -2.752608
C	      3.34077      6.04176      7.86717        -0.611198      4.095764      1.151729
C	      6.10454      0.04868      0.56488        -0.302625     -0.400672     -1.481882
C	      2.26244      0.21839      0.26481        -1.876902      1.969258     -0.594829
64
Config_type=deformed_0001 Weight=1.0 Lattice="8.100400000 0.000000000 0.000000000 0.000000000 7.684710000 0.000000000 0.000000000 0.000000000 8.100400000" Energy=-386.889049 Virial="192.74556 -10.54468 -6.90268 -10.54468 214.55732 5.30567 -6.90268 5.30567 181.75580" Properties=species:S:1:pos:R:3:forces:R:3
Si	      3.63076      0.69962      7.98578         1.919851     -1.923772      1.473862
Si	      6.46785      1.67504      7.86500        -1.018756      0.283080     -0.388303
Si	      5.47117      0.44894      2.34134         0.246927     -1.381191      2.211085
Si	      8.02523      0.02152      0.23993         0.898122     -0.244454     -1.019996
Si	      2.00396      2.14219      8.01632        -0.389940      0.127670     -0.500255
Si	      3.62712      3.80455      7.89416         2.449257     -0.115604     -0.726122
Si	      5.91653      6.18143      0.10984         1.121937     -0.296990     -1.469269
Si	      1.64317      0.13579      2.09922         2.374102     -0.181368      0.510200
Si	      3.77090      2.07641      2.52425         0.644493     -0.866460     -1.245040
Si	      5.69944      3.44890      1.92474        -1.045454      1.488349     -1.661281
Si	      3.90553      6.91101      3.94263         0.056523      1.173156     -0.016994
Si	      5.62897      2.18976      4.00905         1.784238      0.949105      2.033337
Si	      5.95582      0.11934      6.04031         1.704198      1.038632     -0.031312
Si	      0.16249      3.39733      0.43159        -1.205915      0.553347     -0.450570
Si	      1.68731      6.00867      0.36857         0.432302     -1.689754     -1.621905
Si	      0.09526      1.85017      2.19407         0.199235      0.283890      0.758543
Si	      2.32684      3.88662      2.47872        -1.140479      2.009873     -0.631905
Si	      4.31776      6.10896      1.78622        -2.777924      0.598576     -0.329552
Si	      7.72673      7.60325      4.31930        -1.109717     -0.588040     -0.105238
Si	      2.14175      1.58013      4.34530         1.231216      0.077086     -0.466242
Si	      3.98054      3.95824      4.37657        -0.381802     -1.049028      0.616849
Si	      5.70025      5.36700      4.25344         1.493469      2.516367     -1.048228
Si	      1.66965      7.43742      5.80774        -1.029205     -0.916825      0.689137
Si	      4.12723      1.47162      5.99227        -1.046386      1.571220     -0.167403
Si	      6.39211      3.58814      6.71871        -2.161313      0.495402     -2.010349
Si	      7.40312      5.87780      1.91032         1.570937     -0.347120      0.502205
Si	      0.15925      3.79425      4.00403        -3.208692     -0.794300     -0.418467
Si	      1.13073      5.84176      3.51282         0.838598     -0.155639      0.094276
Si	      0.39003      1.78985      5.62127        -1.529923      2.586859      2.140534
Si	      2.32757      4.35124      6.02240         0.310129      0.748038     -0.714748
Si	      4.02557      5.75470      6.71523         0.511890      1.164969     -2.235754
Si	      7.68777      5.38222      6.46404        -0.397918      0.337920      0.136337
C	      6.45310      1.77471      1.57083         1.937935      1.360804     -0.044394
C	      7.46031      3.87840      2.09395         3.233447     -0.895238      1.441530
C	      7.55022      1.89513      3.90383         2.182819     -0.822819      0.455599
C	      2.00420      2.17846      1.79983        -1.626792     -2.183014      2.038023
C	      3.88738      4.38436      1.54377        -0.741190     -1.593192      1.875574
C	      5.78020      5.24366      2.43636         0.413674      1.547148      1.350101
C	      7.25577      0.04342      2.56378         1.741620     -3.079471     -1.788823
C	      3.97746      1.06295      4.23821         0.081335      3.443251     -1.668213
C	      6.44581      3.89699      4.78742        -0.078092     -3.053900      0.070358
C	      7.54706      5.69114      4.68090         3.371464      0.066961     -3.268201
C	      6.66217      1.90911      5.83059        -2.251959     -0.953437      0.500885
C	      0.64074      3.88308      5.79308        -2.799015     -2.892971      1.527578
C	      0.31551      1.71746      7.46897        -0.707445      0.705346      3.004219
C	      2.47402      5.90393      2.01805        -2.877088     -0.444595      2.202266
C	      3.56677      0.30093      1.71145        -0.044874      1.032484      1.644840
C	      2.02947      3.42776      4.28519         0.963110     -1.143087     -2.988930
C	      2.83052      5.49979      4.42006         0.105155     -2.460534      0.913752
C	      5.81228      7.26958      4.23691        -0.315668      1.279633     -1.088364
C	      2.42396      2.49753      6.14261         0.756219     -1.198327      1.941398
C	      4.54570      3.27699      6.19907        -1.057567      0.022741     -2.039181
C	      5.80029      6.02251      6.04249        -2.557034     -1.753124      5.427861
C	      7.89206      7.19427      6.49903        -1.809675      2.659018     -0.784224
C	      4.59106      2.35006      0.55561        -1.334125     -0.002018     -1.014181
C	      5.42330      4.36845      0.13082         1.340793      0.351104     -0.318458
C	      0.04787      5.15690      0.26351        -3.215572      3.193891     -0.346203
C	      2.08772      7.39884      3.90958        -4.471158      2.382527     -1.540604
C	      1.35147      5.78843      6.59243         2.386632      0.737689     -0.364949
C	      3.42485      7.30301      5.66834         2.590509     -1.641378      2.914113
C	      1.96054      4.12362      0.65443        -0.907515     -0.807416     -2.579147
C	      3.39472      6.55759      0.06999         1.851317     -0.419284     -0.455498
C	      5.32229      0.32191      0.57051         2.533781     -2.325086     -3.307696
C	      1.80323      0.13379      7.58011        -0.039039      1.433299      2.381536
64
Config_type=deformed_0005 Weight=1.0 Lattice="8.100400000 0.000000000 0.000000000 0.000000000 8.100400000 0.000000000 0.000000000 1.620085675 7.936737527" Energy=-392.410239 Virial="149.18032 6.48488 0.32256 6.48488 148.40857 -33.58057 0.32256 -33.58057 167.57082" Properties=species:S:1:pos:R:3:forces:R:3
Si	      3.97673      1.84534      7.28227         1.077146     -3.133649      1.614470
Si	      6.13208      2.17157      0.38461        -0.513464      0.609800     -0.705041
Si	      5.65376      0.55733      1.98625         0.270012     -0.559347     -0.962494
Si	      7.41308      1.60619      7.48807        -0.390145      2.233976     -0.020936
Si	      1.90943      2.88822      7.78721         0.185738     -0.454644     -0.126975
Si	      3.39601      3.90028      0.37668         0.126322      2.885675     -1.277883
Si	      5.47619      5.97528      0.37390        -1.600556     -0.726685     -2.263790
Si	      0.86650      8.28473      1.63044        -0.880876      0.086533      2.112160
Si	      3.22121      2.17399      1.59251        -0.778200     -1.830636      2.107162
Si	      5.08859      4.59896      2.15419        -0.372070     -1.320492      0.651493
Si	      3.15211      0.91076      3.62288        -0.017674     -1.161151      1.051888
Si	      5.39503      2.75302      4.00178        -0.222251      2.383501     -2.165228
Si	      5.75793      1.33936      5.67135        -0.956037     -1.640151      1.352604
Si	      8.04297      3.53981      0.03976        -0.321042      0.584862     -3.089602
Si	      1.99869      5.88685      0.03318        -0.521572      1.310575     -2.116188
Si	      7.74212      2.98795      2.07443        -1.079089     -0.772043      3.071922
Si	      1.35309      4.54577      2.57579         1.407130      2.640764     -0.955281
Si	      2.94579      7.10358      1.90172         0.953014     -2.971170      1.783456
Si	      7.59947      8.92831      4.24877         0.997598     -0.705869     -1.782294
Si	      1.74944      2.81458      4.09702         0.859521      0.486011     -1.996002
Si	      3.85490      5.27805      4.06988        -0.885450     -0.366542     -0.907696
Si	      5.50689      7.07758      3.87718         0.486035      0.743815     -1.765031
Si	      1.98322      1.45224      5.82755        -0.303378     -2.269422      1.172446
Si	      4.04923      3.75213      5.96732         0.091232     -0.164558     -0.197132
Si	      5.71200      5.38108      6.31121         2.419617      0.518531      0.698385
Si	      7.53248      6.39431      1.35171         0.813312     -2.621920      2.224073
Si	      7.51191      5.36836      3.92226        -1.163729      0.864402     -0.273213
Si	      1.23823      6.87227      4.49918         0.289575     -0.177391     -0.859819
Si	      7.95565      3.54113      5.40706        -3.227099      0.306922      2.002396
Si	      1.43515      5.25159      6.11335         0.361899     -0.872376     -0.567938
Si	      3.97519      7.02125      5.78302        -1.420906      1.865642      1.534044
Si	      7.68858      7.52779      6.19820        -1.388830     -0.772707     -2.053814
C	      4.99382      2.55675      2.01323         1.623462      1.534969      1.547386
C	      6.88769      4.70478      2.30118         2.675378      0.773828     -1.633376
C	      7.29741      2.76457      3.85083        -0.115288      0.223337      0.030944
C	      1.27954      1.98868      2.18117         2.271286      2.130696     -0.538031
C	      3.16653      5.14251      2.23919         2.645387     -1.322632     -1.037007
C	      4.81415      6.75168      2.01553         1.239733     -1.246346      1.884863
C	      7.45050      1.11454      2.30483        -1.524215     -1.302368     -2.044830
C	      3.53445      3.35671      3.55161         0.212552     -1.840637      1.569751
C	      5.89985      4.68237      4.47997        -4.309374      1.291518     -0.507683
C	      7.28979      7.15846      3.09517        -2.794627     -0.899017      2.676779
C	      6.09936      3.39214      6.42487         0.049606      0.253101     -0.596846
C	      7.58918      5.60399      6.05637         2.205658     -0.868704     -0.594958
C	      0.30377      3.39200      7.28886        -2.964309      0.870075      1.767787
C	      1.16427      6.50783      2.52134        -0.804435      0.419682     -2.385680
C	      3.87086      0.38845      1.22043        -2.716339      1.668901      0.472843
C	      2.04762      4.81676      4.29544        -1.996447      0.646603      1.303690
C	      2.98921      7.13714      3.96853         2.368801     -0.497897     -1.060978
C	      5.01245      0.94080      3.59423        -0.075996     -1.219398      2.111946
C	      2.21951      3.44459      5.98613         0.409017     -1.925853     -0.358233
C	      3.16556      5.44399      6.50074         2.731421      1.573651     -1.284292
C	      5.78911      7.42771      6.43336         1.370192     -0.228746     -1.891010
C	      0.13058      1.81969      5.81771         0.129277     -3.164869     -1.273726
C	      4.29378      3.83938      7.84086        -0.517923     -1.360971      0.027408
C	      5.30690      4.01726      0.34580         0.192818      0.499975     -1.643274
C	      0.10093      7.07948      7.79769        -1.003525     -0.029740      3.290048
C	      1.24714      8.42341      3.58804         0.930808      3.005004     -0.210532
C	      2.05216      7.65579      6.04510        -2.564443     -0.732168      0.398850
C	      3.84323      8.83966      5.45500        -0.191546      3.101606      1.035971
C	      1.50028      4.17206      0.74978         1.541197     -0.124355     -1.085909
C	      3.80144      7.95729      7.53681        -1.390300     -0.781433      1.738236
C	      5.65813      7.74839      0.30136         3.328912      2.982309     -1.698430
C	      1.04042      9.10983      7.69998         2.747477      1.569620      2.698153
64
Config_type=deformed_0006 Weight=1.0 Lattice="8.100400000 0.000000000 0.000000000 0.000000000 7.684710000 0.000000000 0.000000000 0.000000000 8.100400000" Energy=-388.820249 Virial="194.51268 -2.87587 -1.09707 -2.87587 217.50361 10.44793 -1.09707 10.44793 177.49919" Properties=species:S:1:pos:R:3:forces:R:3
Si	      3.70204      0.62792      8.01073        -0.508740     -3.304394     -0.358679
Si	      6.40685      1.70116      7.86071        -0.938259      0.974454      1.231479
Si	      5.51281      0.44095      2.27953         0.847153     -0.360514      0.153881
Si	      7.95208      0.05679      0.23507         1.369249      0.225718     -1.169177
Si	      1.98322      2.03583      7.95589         0.538812     -1.192054     -0.730254
Si	      3.53177      3.74430      7.87521         2.270831      0.993342     -0.996259
Si	      5.86906      6.19134      0.04990         1.027322     -1.354984     -0.510064
Si	      1.77407      0.15216      2.24146         2.158904     -0.316875     -0.892748
Si	      3.94279      2.19337      2.31291        -1.388025     -0.725256     -0.209279
Si	      5.84752      3.53189      1.99764         0.185318      1.948912     -2.421189
Si	      4.00241      6.94283      3.98353         0.587500      0.205102      1.158208
Si	      5.70535      2.22134      4.05133         0.873404     -1.890019      1.281669
Si	      5.99430      0.14309      6.15071         0.900696     -0.360396     -1.803657
Si	      0.32774      3.34807      0.48675        -1.537184      1.275013      1.220534
Si	      1.62462      6.11234      0.45897        -0.065355      1.079321     -2.929121
Si	      0.15302      1.73313      2.11339        -0.360629     -0.205306      1.820960
Si	      2.33607      4.02686      2.51995        -0.118675     -0.565201     -1.188837
Si	      4.28649      6.06331      1.74807        -0.984486     -3.041188      2.610639
Si	      7.76464      7.58266      4.42590        -1.642179     -0.636428     -0.989494
Si	      2.15949      1.55070      4.28981        -1.026682      1.047057      0.619214
Si	      4.01018      3.91052      4.33436        -0.502779     -0.826305      0.612255
Si	      5.72309      5.37261      4.27798         1.165627      1.343070      0.145571
Si	      1.64738      7.41997      5.94010        -0.879420     -1.326892     -1.289602
Si	      4.12902      1.41091      6.00102        -2.007063      1.522904     -2.345155
Si	      6.16602      3.61412      6.69125        -0.773391      0.128508     -3.516346
Si	      7.53272      5.97794      1.84414        -0.379830     -0.216624     -0.676542
Si	      0.10401      3.83690      3.83700        -2.393602     -2.249427      0.122001
Si	      1.11137      5.79081      3.60719         2.015106      2.353748      1.377849
Si	      0.25605      1.93708      5.61333         1.234227      0.884649      1.044920
Si	      2.24284      4.28753      5.92115        -2.094748      0.090678     -0.028129
Si	      3.95445      5.69583      6.72625        -0.389485      2.329372     -1.403220
Si	      7.61057      5.31352      6.59607         0.408549      0.438166     -3.803972
C	      6.50754      1.86108      1.57342         0.369649      2.233039      0.425638
C	      7.59526      4.14836      2.09104         2.349985     -1.989084      0.566128
C	      7.58270      1.87461      3.83870         3.264599     -0.029694     -0.420963
C	      2.07808      2.12344      1.72773        -1.599023     -0.552523      2.041421
C	      3.99018      4.02248      1.54677         0.354144      0.575757      2.776791
C	      5.88713      5.31621      2.49873        -0.798503      2.370021     -0.933177
C	      7.28153      7.64859      2.55357         1.991752     -1.649676      0.240545
C	      3.87053      1.20035      4.11427         2.378599      3.125793     -1.140727
C	      6.53629      3.76766      4.72812        -1.544428      0.397298      0.380787
C	      7.46387      5.63758      4.71087         3.856732      1.799421     -1.552742
C	      6.61317      1.95030      5.88737        -3.383845     -0.918781      1.226217
C	      0.40810      3.79333      5.68024        -1.165995     -0.936397      2.011032
C	      0.23556      1.83165      7.46784        -1.414089      0.533379      2.841476
C	      2.40809      5.93006      2.08140        -2.196936     -0.404093      2.809322
C	      3.60452      0.23930      1.65937        -0.199980      0.175364      3.098253
C	      1.88375      3.32702      4.19423         1.140424      0.034726     -2.860416
C	      2.86082      5.36523      4.51703         0.209724     -1.014483      0.075501
C	      5.76692      0.18628      4.14352         0.359101     -0.672427     -0.251348
C	      2.30351      2.37580      6.12803         0.898811     -0.663351      0.822749
C	      4.46308      3.20168      6.12739        -1.736155      1.031119     -2.041921
C	      5.74950      6.01413      6.06931        -3.129122     -1.154161      3.802219
C	      7.75362      7.13187      6.52406        -0.486892      2.994466      0.185073
C	      4.46737      2.23118      0.39206        -0.854527      0.569687     -1.780365
C	      5.48697      4.30628      0.07938         0.488490      1.340654      2.441638
C	      0.07064      5.06215      0.16865        -1.569392      1.606279      0.496966
C	      2.26301      7.39469      3.97551        -5.427558      0.973705     -0.420029
C	      1.31048      5.74309      6.72835         2.631655     -0.379722     -0.427543
C	      3.45166      7.32537      5.73006         1.284126     -1.980135      2.604527
C	      1.97326      4.40272      0.70085        -0.657410     -4.218054     -0.565202
C	      3.37050      6.44056      0.25840         2.704284     -0.156563     -3.252033
C	      5.35307      0.27903      0.46804         3.926498     -3.502903     -3.017916
C	      1.78387      0.17352      7.61162         0.363111      2.193185      3.680644
64
Config_type=deformed_0008 Weight=1.0 Lattice="8.100400000 0.000000000 0.000000000 0.000000000 8.873540000 0.000000000 0.000000000 0.000000000 8.100400000" Energy=-411.456455 Virial="60.95293 -5.54073 5.24401 -5.54073 91.04997 9.92235 5.24401 9.92235 64.40263" Properties=species:S:1:pos:R:3:forces:R:3
Si	      3.91590      0.17144      7.91101         1.016426     -0.553134      2.119397
Si	      5.92139      2.42452      0.05638         0.270152     -2.048746     -1.769947
Si	      5.55841      0.24997      2.37739         2.533288     -1.008478     -0.107151
Si	      7.45472      8.61745      0.12248         2.196434     -0.083288     -1.034346
Si	      2.43166      2.15867      0.31705        -1.840149      1.534574     -1.370643
Si	      4.09637      4.69676      8.04167         0.060504     -0.965714      1.067599
Si	      5.65862      6.99386      7.75565         0.506429     -2.201935      0.700377
Si	      1.81854      0.35237      1.96807         0.703166     -2.098912     -1.187551
Si	      4.21974      2.38574      1.88561        -0.077265      1.385956      3.203501
Si	      5.95720      4.86261      2.34377         0.462684     -1.192217     -1.342941
Si	      3.58564      0.35130      4.05514        -1.039459     -0.206025      0.997567
Si	      6.34245      2.55673      4.41310        -0.680930     -1.543272     -1.918253
Si	      6.27020      8.84293      6.07498         1.413070      2.173118     -2.082349
Si	      7.40765      4.17172      7.55184         1.541905      3.157230      0.908884
Si	      2.24397      6.57520      0.34735        -2.271178      0.937429     -1.642692
Si	      7.72373      2.35734      1.70173        -0.686560      0.299283      0.313114
Si	      1.44835      4.80902      1.65062         1.265676     -0.792694      0.876965
Si	      4.24979      6.73218      2.59091        -0.243279      2.269603     -0.613534
Si	      0.10352      0.03984      3.70853        -1.193772     -0.251623      0.811981
Si	      1.64600      2.67892      3.85012         2.704355     -1.090051      0.990882
Si	      3.73437      4.83777      3.55713        -3.061279     -2.674797      0.340313
Si	      5.99073      6.84895      4.43238         2.433801      0.671749     -1.960940
Si	      1.87565      0.28165      6.58976        -1.294184     -1.361988     -1.501754
Si	      4.15008      2.21466      5.65894        -1.679348     -0.463628     -0.467114
Si	      5.56838      4.31600      5.95088        -0.498736      2.052587     -1.036385
Si	      7.67464      6.58665      1.76994        -0.775555     -0.512372     -1.597591
Si	      0.10563      4.31715      4.38580        -0.353185      1.673135     -1.627315
Si	      1.54458      6.88569      4.01610         0.879294      0.090328     -1.799515
Si	      0.22535      2.12566      6.51005         2.441384     -0.165327      0.209070
Si	      2.28553      4.41228      6.44290         0.817283      1.297990     -0.087432
Si	      3.96693      6.91834      5.91337         0.073555      0.530625      0.131601
Si	      0.36500      6.74043      6.05537        -0.274979      0.598605      3.370540
C	      5.94367      2.95684      2.51542        -1.067682     -0.129590     -0.646116
C	      7.83957      4.25930      2.50124        -0.596811      1.573285     -2.466790
C	      7.99453      1.93425      3.53850        -1.049566      1.854104      2.064313
C	      1.41911      2.98417      1.94782         0.846973     -2.129365     -0.087695
C	      3.42388      4.05255      1.60088        -0.673670      1.287112     -0.523159
C	      5.86542      7.32094      1.63037         0.617463     -0.415875      1.609506
C	      7.48266      0.43977      1.77958         0.831853     -0.082741      1.748776
C	      3.51606      2.98195      3.64186         1.444491     -1.255139     -0.329869
C	      6.42540      5.02588      4.28560        -0.165352     -1.846268      0.549545
C	      7.80303      7.10185      3.48212         0.674023      0.908701      1.187661
C	      6.56732      1.96815      6.19162         0.359764      0.014315      1.185538
C	      0.61709      5.02367      5.96578         0.174224     -2.776353      0.065485
C	      0.51575      1.46724      0.13601         0.105085     -0.610590     -1.086707
C	      2.37293      7.33496      2.20128        -1.285164     -0.558823      0.331424
C	      3.77568      0.52522      1.93057        -1.318911      2.120523      1.200732
C	      1.63766      5.18543      3.56960         2.155530     -2.231921     -0.226298
C	      3.34919      7.38092      4.26632        -0.051535      1.573040     -2.091534
C	      6.45545      0.64085      4.12804        -2.999966     -0.360324     -0.710942
C	      2.17901      2.74698      5.76238        -1.105159     -1.611793     -0.592749
C	      3.95656      5.16493      5.35242        -0.285041     -1.110871      2.605040
C	      6.54893      6.23357      6.06550        -1.184338      0.952862      0.957089
C	      0.12321      8.44087      5.63359        -1.247691      2.668228      1.875991
C	      4.22703      2.74086      7.42888        -0.194080      1.598511      1.139553
C	      5.92236      5.23202      0.34370        -0.839354     -1.675808      0.690955
C	      0.25119      6.05291      7.93872        -0.250465      0.856947      1.834151
C	      1.67905      0.81157      4.50706         3.034015     -1.230097     -1.060674
C	      2.31396      7.27213      6.50373        -1.513350     -0.404189      0.660764
C	      4.40297      0.12041      6.10519         0.449567      0.622046     -0.805766
C	      1.27298      3.80710      8.04248        -0.061562     -0.935376      0.362238
C	      3.92043      7.17372      0.71122         1.102801      0.097059     -2.016547
C	      5.75452      0.49852      0.44836        -0.820627      2.646046     -1.166830
C	      1.32725      8.30812      0.18250        -0.435016      1.134334      0.848580
64
Config_type=deformed_0009 Weight=1.0 Lattice="8.100400000 0.000000000 0.000000000 0.000000000 8.100400000 0.000000000 -0.810044153 0.000000000 8.059795818" Energy=-396.679956 Virial="117.13430 -0.44491 18.30577 -0.44491 143.13401 4.45432 18.30577 4.45432 162.42866" Properties=species:S:1:pos:R:3:forces:R:3
Si	      3.95039      0.07995      0.58845         0.083533      2.224787     -1.649118