18
Config_type=polymorphs_0000_0 Weight=1.0 Lattice="22.813600000 0.000000000 0.000000000 -0.210382418 3.091088859 0.000000000 -0.210382418 1.538385017 2.681082221" Energy=-141.950712 Virial="-3.63033 0.61286 -2.13193 0.61286 -1.48582 -0.17747 -2.13193 -0.17747 -0.57610" Properties=species:S:1:pos:R:3:forces:R:3
Si	     15.06866      3.67878      2.37492         0.128565      0.261663     -4.184037
Si	     12.65351      2.05240      1.35532         1.210716     -0.030262     -0.804613
Si	     10.34962      0.28614      0.34361         0.591548      1.247883      0.351403
Si	     20.37437      0.92642      0.85351         1.740317     -0.991843     -1.517763
Si	     17.71936      2.20916      1.50189         1.079320      1.059200     -1.401861
Si	     -0.16517      4.15452      2.60074         0.232640      0.782953      0.941048
Si	      7.66611      1.67125      1.18053         0.938603      0.573617      0.327683
Si	      2.59817      1.27312      1.05584        -0.303678     -0.185556     -1.034235
Si	      4.99519      2.94416      1.97733         0.271035      2.030337      0.441095
C	      4.49032      1.45737      1.06550         0.387509     -1.785076     -0.243029
C	      6.94575      3.20015      2.07180        -0.977597     -0.777183     -0.431724
C	     22.40307      1.07137      0.82680        -2.532283     -0.919527     -0.531517
C	      1.88617      2.75757      0.08802         1.414464      0.357165      0.692953
C	      9.61794      1.85289      1.23978        -1.041675     -1.268885     -0.351416
C	     17.00348      3.74707      2.26223        -0.996179     -0.732200      2.129251
C	     12.28648      0.47603      0.41765        -1.857078     -0.304951      0.383529
C	     14.52311      2.15373      1.25803         0.703773     -0.284794      4.167889
C	     19.65407      2.38074      1.64692        -0.990001      0.967458      1.065343
18
Config_type=polymorphs_0000_1 Weight=1.0 Lattice="22.813600000 0.000000000 0.000000000 -0.210382418 3.091088859 0.000000000 -0.210382418 1.538385017 2.681082221" Energy=-141.551699 Virial="-4.02984 1.83215 -2.30856 1.83215 -0.17247 -0.66762 -2.30856 -0.66762 0.26568" Properties=species:S:1:pos:R:3:forces:R:3
Si	     15.09469      3.67874      2.35602         0.599727      0.201962     -5.162899
Si	     12.69775      2.04480      1.34186         0.141367      0.162735     -0.598841
Si	     10.30653      0.34513      0.29801         1.619050     -0.218150      1.637256
Si	     20.37853      0.85782      0.84818         1.344116      0.703499     -1.266050
Si	     17.71558      2.17842      1.50356         1.448160      2.749823     -1.986538
Si	     -0.20589      4.16872      2.62018         1.429860      1.056283      1.130782
Si	      7.67215      1.69988      1.15962         0.644996      0.774370     -0.301099
Si	      2.61499      1.22241      1.06013        -0.472823      0.986770     -0.829831
Si	      5.01633      2.98928      1.92608         0.243423      2.116832      0.998904
C	      4.54006      1.49723      1.04980        -0.494045     -2.188053     -0.758647
C	      6.93435      3.24384      2.01508        -0.390343     -1.103619      0.288280
C	     22.42365      1.09787      0.85435        -3.360846     -1.422988     -0.822527
C	      1.86668      2.77369      0.10179         1.728594     -0.556190      0.431735
C	      9.62718      1.83154      1.24008        -1.705431      0.183636     -1.581987
C	     17.01419      3.77226      2.23614        -1.219684     -2.410717      2.736639
C	     12.25311      0.47762      0.41636        -0.756881     -0.346372     -0.006555
C	     14.58195      2.13917      1.21554        -0.298412     -0.167870      5.196097
C	     19.63888      2.37790      1.64707        -0.500829     -0.521951      0.895282
18
Config_type=polymorphs_0000 Weight=1.0 Lattice="22.813600000 0.000000000 0.000000000 -0.210382418 3.091088859 0.000000000 -0.210382418 1.538385017 2.681082221" Energy=-142.022999 Virial="-3.55636 0.97061 -1.97666 0.97061 -2.55433 0.14936 -1.97666 0.14936 -0.13150" Properties=species:S:1:pos:R:3:forces:R:3
Si	     15.09831      3.65912      2.36820        -0.174802      0.355895     -4.077407
Si	     12.66126      2.02890      1.33105         1.178537      0.272450     -0.917817
Si	     10.32347      0.30491      0.32200         1.136876      0.594398      1.131924
Si	     20.39024      0.89482      0.82467         1.066458      0.200476     -1.409187
Si	     17.73257      2.21397      1.50728         0.636415      0.893645     -1.351248
Si	     -0.19112      4.17276      2.59223         0.829622      0.534703      1.497185
Si	      7.67668      1.70586      1.17775         0.625503      0.444525     -0.263085
Si	      2.60523      1.23410      1.05460        -0.445453      0.535355     -1.047239
Si	      5.01633      2.96399      1.96438         0.023987      2.035607      0.087572
C	      4.50926      1.48561      1.03109         0.078891     -1.962865      0.132487
C	      6.94191      3.23299      2.03529        -0.630304     -0.825981      0.244400
C	     22.40411      1.07896      0.83945        -2.891755     -0.800702     -1.175488
C	      1.86388      2.75822      0.08740         1.768562     -0.133959      0.606409
C	      9.61692      1.83873      1.25072        -1.314975     -0.559712     -1.191235
C	     17.00815      3.74655      2.27804        -0.643857     -0.599654      1.889892
C	     12.26065      0.46585      0.38382        -1.394314     -0.459095      0.595379
C	     14.55441      2.14297      1.25375         0.227581     -0.382817      4.055880
C	     19.63162      2.39707      1.60680        -0.076971     -0.142269      1.191576
20
Config_type=polymorphs_0001_0 Weight=1.0 Lattice="3.076370000 0.000000000 0.000000000 -1.538185000 2.664214571 0.000000000 0.000000000 0.000000000 25.168700000" Energy=-157.494940 Virial="5.13749 -0.45315 4.79780 -0.45315 5.72583 2.70812 4.79780 2.70812 0.08507" Properties=species:S:1:pos:R:3:forces:R:3
Si	      1.60880      0.39991      5.13385         1.362313      1.658799      0.283052
Si	      1.55975      0.38293     10.17061         2.386170      2.147560     -0.535407
Si	      1.54921      2.17916      7.62842         2.283534      1.103261      0.780070
Si	      1.57116      0.40813     15.17009         1.365041      0.338063      0.434612
Si	      1.58633      2.19304      0.09080         1.558615      1.029341     -0.360288
Si	      1.53991      2.16078     17.69841         2.190411      1.045805      0.522089
Si	      0.01630      1.31190     22.70140         2.905176      0.592400      1.986399
Si	      1.55609      0.44503     20.18814         2.137854     -0.209877      1.793249
Si	      0.03448      1.25391      2.60223         2.250915      1.309774      0.610168
Si	      0.06787      1.28478     12.66124         0.230451      1.297240      0.137432
C	      1.66000      2.19679     19.60838        -2.073198      0.063325     -0.905698
C	      1.72405      2.22510      1.97111        -2.227571     -1.041668     -0.032048
C	      1.67740      0.45775     17.07867        -2.143939     -1.045542     -0.693136
C	      1.69048      0.47393      7.03018        -2.228873     -1.068071     -0.844116
C	      0.16729      1.37487      4.51648        -1.519610     -1.770521     -0.682097
C	      0.10230      1.31761     14.55607        -1.202177     -0.310288     -0.102570
C	      1.61380      0.47780     12.03646        -0.288804     -1.417457      0.200207
C	      0.11338      1.36021     24.61549        -1.524485     -1.109574     -0.098543
C	      1.65564      2.28992      9.51364        -2.467568     -2.186937      0.187272
C	      1.68117      0.42070     22.17806        -2.994256     -0.425632     -2.680648
20
Config_type=polymorphs_0001_1 Weight=1.0 Lattice="3.076370000 0.000000000 0.000000000 -1.538185000 2.664214571 0.000000000 0.000000000 0.000000000 25.168700000" Energy=-157.824611 Virial="5.03458 0.27272 4.96235 0.27272 4.44290 2.37371 4.96235 2.37371 0.30604" Properties=species:S:1:pos:R:3:forces:R:3
Si	      1.59622      0.41346      5.15435         1.143221      0.455809     -0.911175
Si	      1.60138      0.42073     10.17167         1.057238      1.146047     -0.711059
Si	      1.53832      2.18378      7.63989         1.710337      1.566053      0.390257
Si	      1.61031      0.40492     15.16226         0.474910      1.702771      1.594549
Si	      1.60247      2.19068      0.09688         1.288319      0.493879      0.783399
Si	      1.58340      2.16643     17.70038         1.544861      0.596447      0.899280
Si	      0.05607      1.31455     22.71253         0.990723     -0.413234      1.498189
Si	      1.54163      0.40245     20.22421         3.201345      1.539076      0.734317
Si	      0.02084      1.30489      2.63868         3.046768     -0.397571      0.109890
Si	      0.00636      1.26766     12.66087         2.835876      1.905363      0.757491
C	      1.67508      2.23927     19.62034        -3.147089     -1.715980     -0.958921
C	      1.72716      2.21171      2.01255        -3.086107      0.427299     -0.607321
C	      1.66226      0.42166     17.11039        -1.474352     -0.458811     -1.262412
C	      1.65346      0.49663      7.00141        -1.537282     -1.565653      0.573356
C	      0.12876      1.32637      4.51469        -1.284792     -0.324073      0.354782
C	      0.09871      1.37011     14.59883        -0.583056     -1.922123     -1.416295
C	      1.66237      0.46558     12.02149        -2.726246     -1.743800      0.429411
C	      0.11589      1.32273     24.67535        -1.194660     -0.490116     -1.329551
C	      1.64757      2.26213      9.54620        -1.191934     -1.242626     -0.214011
C	      1.64349      0.40104     22.12872        -1.068081      0.441242     -0.714176
20
Config_type=polymorphs_0001 Weight=1.0 Lattice="3.076370000 0.000000000 0.000000000 -1.538185000 2.664214571 0.000000000 0.000000000 0.000000000 25.168700000" Energy=-157.974854 Virial="5.32543 0.47425 5.22240 0.47425 3.97887 2.22118 5.22240 2.22118 -0.55613" Properties=species:S:1:pos:R:3:forces:R:3
Si	      1.57507      0.40304      5.11126         1.881023      0.924226      0.629726
Si	      1.57829      0.39913     10.16866         1.827760      1.409770     -0.561084
Si	      1.57262      2.17674      7.63392         1.771596      1.049168      0.254856
Si	      1.57793      0.41029     15.18956         1.305241      0.613541      0.161565
Si	      1.57339      2.18090      0.06040         2.520470      1.425467      1.513932
Si	      1.57458      2.19494     17.69385         1.693829     -0.083202      0.716793
Si	      0.03542      1.29958     22.73111         2.063860      0.783698      0.894402
Si	      1.56772      0.41972     20.20443         2.221965      0.351055      1.114333
Si	      0.03395      1.29761      2.59716         2.126016      0.531544      0.786201
Si	      0.03824      1.29145     12.66464         1.800493      1.281160      0.289585
C	      1.67561      2.19350     19.60793        -2.200647     -0.298133     -0.680049
C	      1.68845      2.22736      2.00116        -2.123696     -0.513967     -1.036966
C	      1.65569      0.42460     17.09609        -1.646121      0.065618     -0.695451
C	      1.68516      0.46477      7.00948        -1.827355     -1.031656     -0.319781
C	      0.14724      1.34841      4.51199        -1.913996     -0.903484     -0.816805
C	      0.11387      1.33837     14.56790        -1.286814     -0.696489     -0.125274
C	      1.65407      0.46896     12.03643        -1.807084     -1.340020      0.200117
C	      0.13402      1.35078     24.65073        -2.507477     -1.455966     -1.230266
C	      1.65802      2.24868      9.52761        -1.844249     -1.414300      0.150093
C	      1.66387      0.43403     22.14594        -2.054812     -0.698032     -1.245926
54
Config_type=polymorphs_0002 Weight=1.0 Lattice="3.076510000 0.000000000 0.000000000 -1.538255000 2.664335815 0.000000000 0.000000000 0.000000000 67.949400000" Energy=-425.358417 Virial="8.71983 1.62109 -6.49177 1.62109 2.45790 -1.01822 -6.49177 -1.01822 14.37185" Properties=species:S:1:pos:R:3:forces:R:3
Si	      1.16181      2.53341     15.01274        -1.023889      0.409698      1.502847
Si	      1.19152      0.74716     65.27083        -1.744872      0.016012      0.667616
Si	      1.26712      0.68980     27.79266        -0.889832     -0.837454     -0.342939
Si	     -0.31363      1.75481     20.05730        -0.491250     -0.823654      1.374472
Si	     -0.17256      1.58730     35.27525        -0.032831     -0.334518     -3.007934
Si	      1.32056      0.93454     42.82307        -4.273070     -2.837450      0.643698
Si	      1.24665      2.52134     62.82194        -0.293986      0.729813     -1.507919
Si	      1.27904      2.52539     52.94617        -1.558526      1.872476     -1.147487
Si	      1.20055      2.62320     30.36659         0.964838     -0.476857     -2.727013
Si	     -0.45003      1.57254     50.38108         0.461563      0.979728     -0.548720
Si	     -0.28792      1.60353     10.05379         0.304468      0.840744     -1.267463
Si	      1.18021      2.59224     45.27401        -0.451141     -0.866619      2.698998
Si	      1.19942      0.81100     12.51764        -0.961890     -0.506617     -0.471965
Si	      1.21056      0.83221     32.75841        -0.486015     -0.512231     -2.140176
Si	     -0.33112      1.64768     60.37916         0.294895      1.059469     -1.124889
Si	      1.22419      0.84302      7.59335        -0.309861     -1.167937      1.310713
Si	     -0.36964      1.68695     55.47253        -1.648219     -0.454264     -2.788134
Si	      1.12794      0.82152     17.61996        -0.664441     -0.474924     -1.182099
Si	      1.25023      2.65112     67.87058        -0.831636     -0.190990      0.029536
Si	      1.17347      0.74378     57.90852        -1.016358     -0.390528     -0.533117
Si	      1.34905      2.45892     37.70920        -0.275313      1.173389      0.411365
Si	      1.15592      2.65594      5.17639        -1.883016      0.080013     -0.343383
Si	      1.26608      2.46435     22.62579        -0.271545     -0.090221      0.519354
Si	      1.15552      0.70730     47.88258         0.165718     -0.379555     -0.177629
Si	     -0.12068      1.65639     40.18867        -4.042763     -0.937482      2.579836
Si	     -0.33196      1.71978     25.21602         1.175742     -0.795985     -0.246981
Si	     -0.35915      1.65050      2.54878        -1.056651      2.049582      0.651201
C	      1.06693      2.57332     54.81274         2.055139      0.176908      0.270772
C	      1.37402      0.66414     34.49791        -0.366575      0.690212      4.815978
C	     -0.29119      1.68301     62.17438        -0.146219     -0.822897      1.664697
C	     -0.50281      1.76408      4.53426         2.426898     -0.622176     -1.198357
C	      1.22007      0.87052     67.17885         0.404477     -0.191235      0.716275
C	      1.25242      0.82829     29.73466        -0.908449      0.074062     -1.046948
C	      1.27414      0.75481      9.45176        -0.654763     -0.465396     -0.256437
C	      1.16514      2.58723     32.12987         0.866407      0.251992      2.247567
C	     -0.30797      1.80011     52.21775         0.779080     -2.257505      1.479292
C	     -0.31308      1.47991     27.07648         0.780227      1.764861      1.335492
C	     -0.37249      1.71298     42.21017         4.526221      2.262545     -2.443732
C	      1.20167      2.57537      7.07149         0.284772      1.145655     -1.878115
C	      1.11367      2.63673      1.88084         1.080736     -1.723876     -0.538131
C	      1.11362      0.77684     14.41207         1.045536     -0.233010     -0.665921
C	      1.06532      2.48356     64.61512         2.176047      0.397309      1.540645
C	      1.23483      2.54052     39.57577         3.546628      0.897333     -0.408047
C	      1.17195      2.45969     47.29822        -0.236567      0.855733     -1.945327
C	      1.21939      0.82437     59.77645        -0.386518     -1.198316     -0.358292
C	     -0.38753      1.67792     11.83203         0.896177      0.312140      2.869615
C	      1.26840      2.59781     24.58341        -1.123972     -0.057694     -0.823192
C	      1.09661      0.72169     49.73081        -0.022814     -0.534343      0.849579
C	     -0.28855      1.55219     21.96804         0.127297      0.908475      0.009445
C	      1.16046      0.78582     44.71546         0.865847      0.882848     -1.185635
C	      1.19272      0.84697     19.46954         0.429703      0.248205     -0.115572
C	      1.06929      2.56392     16.96832         1.107137      0.422143     -0.566382
C	     -0.19184      1.63065     37.11056         0.046946     -1.037425      0.068970
C	     -0.43133      1.59951     57.23378         1.240482      0.719811      2.729975
8
Config_type=polymorphs_0003_1 Weight=1.0 Lattice="3.075690000 0.000000000 0.000000000 -1.537845000 2.663625674 0.000000000 0.000000000 0.000000000 10.070600000" Energy=-62.888255 Virial="1.74707 -0.70923 1.29283 -0.70923 0.33198 0.21888 1.29283 0.21888 2.39663" Properties=species:S:1:pos:R:3:forces:R:3
Si	      1.15339      0.77093      9.79832        -1.644987      0.852491      3.316264
Si	     -0.36147      1.59154      4.78690         0.643475      0.798137     -0.217226
Si	      1.18251      2.47218      7.30975        -1.173443     -0.857076     -0.499823
Si	      1.14925      2.55961      2.37005        -0.636433     -0.028162     -1.178307
C	      1.11563      0.62831      8.00388         1.292997      1.200920     -2.401955
C	     -0.41520      1.66651      2.97446         0.556707     -0.068685     -1.168977
C	      1.21502      2.50869      5.29117        -0.872353     -0.706339      3.436946
C	      1.05597      2.61906      0.47695         1.834037     -1.191286     -1.286922
8
Config_type=polymorphs_0003 Weight=1.0 Lattice="3.075690000 0.000000000 0.000000000 -1.537845000 2.663625674 0.000000000 0.000000000 0.000000000 10.070600000" Energy=-63.048844 Virial="2.02962 -0.88480 1.00450 -0.88480 -0.13955 0.32076 1.00450 0.32076 2.24020" Properties=species:S:1:pos:R:3:forces:R:3
Si	      1.17271      0.78857      9.83686        -2.150247      0.908948      2.208195
Si	     -0.34180      1.62918      4.79914         1.023390     -0.228197     -0.160050
Si	      1.16510      2.49363      7.33704        -0.755526     -0.764244     -0.298695
Si	      1.14574      2.55732      2.35209         0.026430     -0.068166     -0.745824
C	      1.11009      0.65858      8.04097         1.062436      1.031699     -2.639553
C	     -0.38128      1.65984      2.97395        -0.130534      0.103061     -1.166177
C	      1.24858      2.50631      5.32715        -1.374234      0.281765      3.001602
C	      1.06004      2.62122      0.45237         2.298286     -1.264866     -0.199499
20
Config_type=polymorphs_0004_0 Weight=1.0 Lattice="3.076370000 0.000000000 0.000000000 -1.538185000 2.664214571 0.000000000 0.000000000 0.000000000 25.168700000" Energy=-158.549393 Virial="0.80713 -0.20168 0.90530 -0.20168 5.89319 0.37097 0.90530 0.37097 -0.52699" Properties=species:S:1:pos:R:3:forces:R:3
Si	      1.58637      0.38487      5.12486         0.955698      0.867236      0.472833
Si	      1.58539      0.43906     10.17284         0.853136     -0.520511      0.832938
Si	      1.60953      2.19395      7.59096         0.995889      0.572060      2.273856
Si	      1.60337      0.40356     15.18549        -0.287208      0.470470      1.089801
Si	      1.60764      2.20518      0.05495         0.305039      0.196364      0.687936
Si	      1.57449      2.16703     17.72953         0.358935      0.388096     -1.153631
Si	      0.09165      1.33178     22.74561        -0.513639     -0.781413     -1.187413
Si	      1.63350      0.41451     20.23057        -0.342208     -0.554242     -1.261867
Si	      0.03814      1.31398      2.59788         0.643848      0.984899      0.837132
Si	      0.04778      1.31061     12.63062         1.120927     -0.043228      2.474697
C	      1.61595      2.15771     19.55984         0.169968      0.553309      1.980533
C	      1.60762      2.25318      2.00418        -0.466628     -1.116498     -0.872648
C	      1.59047      0.41310     17.10910        -0.237173     -0.409677     -0.374392
C	      1.66448      0.45070      7.02920        -1.162571     -0.737633     -0.893923
C	      0.09545      1.31191      4.54383        -0.913098     -0.688907     -1.165019
C	      0.05153      1.31413     14.62801         0.252045     -0.462461     -1.709446
C	      1.64083      0.41531     12.10009        -1.249037      0.103133     -1.609599
C	      0.08617      1.32123     24.60413        -0.289700     -0.073368      0.598271
C	      1.62522      2.19065      9.61645        -0.761725      0.460275     -2.012889
C	      1.59463      0.39831     22.09132         0.567501      0.792098      0.992833
20
Config_type=polymorphs_0004_1 Weight=1.0 Lattice="3.076370000 0.000000000 0.000000000 -1.538185000 2.664214571 0.000000000 0.000000000 0.000000000 25.168700000" Energy=-158.290167 Virial="1.72619 0.12560 1.60035 0.12560 4.96581 0.57671 1.60035 0.57671 0.60865" Properties=species:S:1:pos:R:3:forces:R:3
Si	      1.62290      0.40907      5.15506         0.285443      1.344710     -0.856019
Si	      1.63809      0.41427     10.14613        -0.170996      1.089562      1.572087
Si	      1.57939      2.18445      7.62791         1.426031      0.102347      1.129912
Si	      1.58433      0.39403     15.16855         0.252338      0.382607      1.402262
Si	      1.58470      2.19986      0.05784         1.603953     -0.081788      0.273281
Si	      1.60226      2.16413     17.73806        -0.141712      1.233372     -2.072905
Si	      0.06668      1.34536     22.75514         0.350608     -2.128686     -0.863457
Si	      1.60214      0.39278     20.19281         0.011978      0.213774      0.153997
Si	      0.02849      1.33298      2.60076         1.385894      0.210306     -0.195726
Si	      0.05660      1.30328     12.61896         1.364474     -0.324566      2.789967
C	      1.59919      2.18649     19.54750         0.063791     -0.340838      1.939705
C	      1.64571      2.24026      1.93514        -1.301686     -0.235386      0.942910
C	      1.59146      0.45501     17.07997         0.127955     -1.352124      0.142428
C	      1.65168      0.41418      7.01459        -1.343037      0.050765      0.292419
C	      0.10461      1.36710      4.52100        -0.427367     -1.410956     -0.296246
C	      0.05771      1.29441     14.63154        -0.217292     -0.206730     -2.180746
C	      1.66305      0.39436     12.09992        -1.447989      0.372633     -2.171428
C	      0.13522      1.28931     24.61839        -1.637507      0.296074      0.025996
C	      1.63019      2.25327      9.60002         0.086410     -1.325245     -1.908720
C	      1.62459      0.35396     22.10708        -0.271292      2.110171     -0.119718
20
Config_type=polymorphs_0004 Weight=1.0 Lattice="3.076370000 0.000000000 0.000000000 -1.538185000 2.664214571 0.000000000 0.000000000 0.000000000 25.168700000" Energy=-158.896094 Virial="1.09712 0.69060 0.94781 0.69060 3.88268 0.65466 0.94781 0.65466 -0.71805" Properties=species:S:1:pos:R:3:forces:R:3
Si	      1.59288      0.40395      5.11957         0.441705      1.192616      0.443587
Si	      1.59571      0.41578     10.16841         0.712976      0.376603      0.426248
Si	      1.59430      2.18855      7.60749         0.574912      0.576367      1.553709
Si	      1.60440      0.41996     15.19636        -0.173672     -0.011904      0.036061
Si	      1.58802      2.19696      0.05688         0.872707      0.076522      0.631602
Si	      1.60153      2.19654     17.70291         0.060974      0.049300     -0.203288
Si	      0.05133      1.32201     22.75024         0.766044     -0.746759     -0.679736
Si	      1.60530      0.42428     20.21827        -0.087021     -0.120931     -0.388876
Si	      0.05570      1.29334      2.59590         0.330110      0.984816      0.239385
Si	      0.06104      1.31053     12.63444         0.440065     -0.094329      1.918032
C	      1.59619      2.19694     19.56992         0.171588      0.045479      0.966028
C	      1.61269      2.22787      1.96693        -0.324104     -0.913244      0.028224
C	      1.60480      0.42342     17.09408        -0.062325     -0.062831     -0.296386
C	      1.62275      0.44039      7.02886        -0.564030     -0.615963     -0.809338
C	      0.07948      1.34833      4.52231        -0.427516     -1.244748     -0.812105
C	      0.05670      1.30706     14.58627         0.185298      0.028201     -0.663493
C	      1.62199      0.41754     12.08878        -0.516299      0.081805     -1.420071
C	      0.09551      1.30549     24.62329        -0.915773      0.032080     -0.043680
C	      1.62920      2.21079      9.57468        -0.741690     -0.430173     -1.115012
C	      1.63523      0.39140     22.11171        -0.743951      0.797091      0.189110
36
Config_type=polymorphs_0005_0 Weight=1.0 Lattice="3.076140000 0.000000000 0.000000000 -1.538070000 2.664015386 0.000000000 0.000000000 0.000000000 45.309600000" Energy=-283.809298 Virial="5.93703 -1.85128 1.51271 -1.85128 5.51541 1.85215 1.51271 1.85215 3.16766" Properties=species:S:1:pos:R:3:forces:R:3
Si	     -1.28265      2.65605     10.23992        -0.362078      1.582879     -1.637056
Si	      1.75847      0.81237     15.23880        -1.804238      1.079225     -0.382220
Si	      0.06476      1.70405     32.96345         2.236988     -0.138920     -1.163289
Si	      1.72541      0.94257     25.20161        -1.084881     -0.376711      0.861978
Si	      0.17940      0.03050     20.23378         1.120123      1.445083     -0.503504
Si	      0.00179      1.84942     12.74085         3.524842     -0.865802     -0.135799
Si	      0.08151      0.01373     30.34542         0.011527      1.082028      0.517212
Si	      0.24474      1.79229      2.59688        -0.476422      0.303749      2.517829
Si	      0.15014      1.84525     27.74563         0.270166     -0.921198      0.948586
Si	      1.65513      0.93428     40.39127        -1.262106      0.761092      0.573483
Si	     -1.25449      2.66365     37.87938        -0.799989      0.419222      0.720864
Si	      0.03087      1.79817     42.98387        -1.391089      0.514842     -0.916147
Si	      1.73676      0.83647      5.07120         0.896572     -0.338432      0.931256
Si	      0.14420      0.11447      0.13260        -0.470710     -2.092280      1.584749
Si	      0.06318      1.71744      7.56466         2.200166      1.330109      1.215722
Si	      1.60883      0.86570     35.44451        -0.237020      1.390887     -0.100812
Si	      0.15320      1.79425     17.77357         1.103295      1.490361     -2.365005
Si	      0.31837      1.88037     22.69661        -0.460303      1.050379      1.096236
C	      0.13238      1.81905     24.60725         1.521113      0.469283     -0.878646
C	      1.47742      0.92565     42.33239         2.110068     -0.464129     -0.453274
C	      0.22435      0.03844      2.11322         0.178857     -0.348218     -2.841265
C	      1.71883      0.90554     27.11168        -0.395895      1.047340      0.026098
C	      0.19103      0.09321     12.11860        -3.084729      0.383131     -0.461858
C	      0.25093      1.87696      9.52853        -0.345338     -1.738451      0.143062
C	      0.21822      1.88583     19.56843        -0.903318     -1.310275      1.971811
C	     -1.32246      2.59779     32.26789        -2.591151      0.673312      0.287122
C	      1.68787      0.87932      6.91916        -1.540882     -0.987577      1.122807
C	      0.09390      1.80143     44.85290         0.548227      1.823942     -0.450478
C	      0.02285      1.82087     34.83899         0.840046     -1.513133     -0.346586
C	      0.24430      1.70645      4.54605        -1.046638      0.733407     -2.255320
C	      0.09729      1.75651     14.58403         1.601725     -0.432880      0.782939
C	      0.32346      0.16514     22.11411        -0.453447     -1.591789     -0.583595
C	      1.80767      0.90129     37.30641        -0.288032     -0.368868     -0.561480
C	      0.07033      1.87027     29.72037         0.486819     -1.325455     -1.038551
C	      0.07030      0.09454     39.74031         1.295216     -1.050613      0.815205
C	      1.73649      1.00846     17.09679        -0.947485     -1.715536      0.957925
36
Config_type=polymorphs_0005_1 Weight=1.0 Lattice="3.076140000 0.000000000 0.000000000 -1.538070000 2.664015386 0.000000000 0.000000000 0.000000000 45.309600000" Energy=-284.202464 Virial="5.43098 -0.99513 -0.27152 -0.99513 5.30630 4.31556 -0.27152 4.31556 3.21860" Properties=species:S:1:pos:R:3:forces:R:3
Si	      0.21527      0.03802     10.23518         0.348770      1.170882     -1.435466
Si	      1.73402      0.84655     15.28170        -1.077323      0.413890     -1.535403
Si	      0.06752      1.69810     32.99154         1.337355      0.910000     -2.605359
Si	      1.70873      0.92397     25.17969        -0.493117      0.004222      2.252711
Si	      0.22640      0.05213     20.25797        -1.114641      1.375601     -0.891240
Si	      0.07251      1.80746     12.75161         1.426166      1.521471     -0.370834
Si	     -1.46763      2.64766     30.30661        -0.583757      1.206834      0.808706
Si	      0.24129      1.79099      2.63156        -0.233075      0.587189      0.880142
Si	      0.11527      1.80838     27.72403         0.933043     -0.985338      1.526955
Si	      1.68130      0.92630     40.36758        -1.649374      0.953195      1.358168
Si	     -1.27564      2.65338     37.90973        -0.748013      1.062781      0.107744
Si	      0.05725      1.74444     42.96803        -1.993088      1.847369     -1.261625
Si	      1.71590      0.84098      5.09891        -0.194318      0.249012      0.385763